# 
# Forces execution inside builder container
#
# this file is sourced and is not executable
#
if [ "$USER" != "builder" ]
then
	./buildscripts/builder.sh "$0"
	exit 0
fi
